
  ___ ___ ___ _ _ _  
 |   |   |_  | | | | 
 | | | | | . | | | | 
 |__ |  _|___|_____|  0.10.0.11364M
 |___|_|             

User:  asod@n-62-24-2
Date:  Thu Nov  5 16:42:27 2015
Arch:  x86_64
Pid:   20918
Dir:   /zhome/c7/a/69784/SCME2015_Nov/gpaw_scme/build/lib.linux-x86_64-2.7/gpaw
ase:   /zhome/c7/a/69784/JJ_qmmm/ase_JJqmmm/ase (version 3.10.0)
numpy: /appl/python/2.7.3/lib/python2.7/site-packages/numpy (version 1.6.2)
scipy: /appl/python/2.7.3/lib/python2.7/site-packages/scipy (version 0.11.0)
units: Angstrom and eV
cores: 32

Memory estimate
---------------
Process memory now: 190.69 MiB
Calculator  3.86 MiB
    Density  1.77 MiB
        Arrays  1.43 MiB
        Localized functions  0.04 MiB
        Mixer  0.31 MiB
    Hamiltonian  2.01 MiB
        Arrays  0.93 MiB
        XC  0.00 MiB
        Poisson  1.07 MiB
        vbar  0.00 MiB
    Wavefunctions  0.08 MiB
        C [qnM]  0.00 MiB
        S, T [2 x qmm]  0.01 MiB
        P [aqMi]  0.00 MiB
        TCI  0.00 MiB
        BasisFunctions  0.07 MiB
        Eigensolver  0.00 MiB

Positions:
  0 O     5.3140    5.5094    5.7586
  1 H     5.0000    6.4135    5.7586
  2 H     6.2745    5.5902    5.7586

        .-------------------------------------.  
       /|                                     |  
      / |                                     |  
     /  |                                     |  
    /   |                                     |  
   /    |                                     |  
  /     |                                     |  
 *      |                                     |  
 |      |                                     |  
 |      |                                     |  
 |      |        H                            |  
 |      |        O  H                         |  
 |      |                                     |  
 |      |                                     |  
 |      .-------------------------------------.  
 |     /                                     /   
 |    /                                     /    
 |   /                                     /     
 |  /                                     /      
 | /                                     /       
 |/                                     /        
 *-------------------------------------*         

Unit Cell:
           Periodic     X           Y           Z      Points  Spacing
  --------------------------------------------------------------------
  1. axis:    no    15.615516    0.000000    0.000000    80     0.1952
  2. axis:    no     0.000000   11.413485    0.000000    56     0.2038
  3. axis:    no     0.000000    0.000000   11.517122    56     0.2057

O-setup:
  name   : Oxygen
  id     : 32ecd46bf208036f09c70b0ec9a88b78
  Z      : 8
  valence: 6
  core   : 2
  charge : 0.0
  file   : /zhome/c7/a/69784/gpaw-setups/O.PBE.gz
  cutoffs: 0.67(comp), 1.17(filt), 0.83(core), lmax=2
  valence states:
            energy   radius
    2s(2)  -23.961   0.688
    2p(4)   -9.029   0.598
    *s       3.251   0.688
    *p      18.182   0.598
    *d       0.000   0.619

LCAO basis set for O:
  Name: dzp
  Basis set was loaded from file /zhome/c7/a/69784/gpaw-setups/O.dzp.basis
  Number of radial functions: 5
  Number of spherical harmonics: 13
    l=0, rc=4.3438 Bohr: 2s-sz confined orbital
    l=1, rc=5.3906 Bohr: 2p-sz confined orbital
    l=0, rc=2.2969 Bohr: 2s-dz split-valence wave
    l=1, rc=2.9688 Bohr: 2p-dz split-valence wave
    l=2, rc=5.3906 Bohr: d-type Gaussian polarization

H-setup:
  name   : Hydrogen
  id     : d65de229564ff8ea4db303e23b6d1ecf
  Z      : 1
  valence: 1
  core   : 0
  charge : 0.0
  file   : /zhome/c7/a/69784/gpaw-setups/H.PBE.gz
  cutoffs: 0.48(comp), 0.85(filt), 0.53(core), lmax=2
  valence states:
            energy   radius
    1s(1)   -6.494   0.476
    *s      20.717   0.476
    *p       0.000   0.476

LCAO basis set for H:
  Name: dzp
  Basis set was loaded from file /zhome/c7/a/69784/gpaw-setups/H.dzp.basis
  Number of radial functions: 3
  Number of spherical harmonics: 5
    l=0, rc=6.6406 Bohr: 1s-sz confined orbital
    l=0, rc=3.6094 Bohr: 1s-dz split-valence wave
    l=1, rc=6.6406 Bohr: p-type Gaussian polarization

Using the PBE Exchange-Correlation Functional.
Spin-Paired Calculation
Total Charge:      0.000000
Fermi Temperature: 0.000000
Wave functions: LCAO
Eigensolver:       lcao (direct)
XC and Coulomb potentials evaluated on a 160*112*112 grid
Interpolation: tri-quintic (5. degree polynomial)
Poisson solver: Jacobi solver with 5 multi-grid levels
Stencil: 6*3+1=19 point O(h^6) finite-difference Laplacian
Reference Energy:  -2065.833357

Total number of cores used: 32
Domain Decomposition: 4 x 2 x 4
Diagonalizer layout: Serial LAPACK

Symmetries present: 1
1 k-point (Gamma)
1 k-point in the Irreducible Part of the Brillouin Zone
Mixer Type:                        Mixer
Linear Mixing Parameter:           0.25
Mixing with 3 Old Densities
No Damping of Long Wave Oscillations

Convergence Criteria:
Total Energy Change:           0.0005 eV / electron
Integral of Absolute Density Change:    0.0001 electrons
Integral of Absolute Eigenstate Change: 4e-08 eV^2
Number of Atoms: 3
Number of Atomic Orbitals: 23
Number of Bands in Calculation:         6
Bands to Converge:                      Occupied States Only
Number of Valence Electrons:            8
                     log10-error:    Total        Iterations:
           Time      WFS    Density  Energy       Fermi  Poisson
iter:   1  16:42:28                    -8.363407  0      16     
iter:   2  16:42:28         -0.57      -6.309106  0      9      
iter:   3  16:42:28         -0.82      -5.704493  0      9      
iter:   4  16:42:28         -1.30      -5.642845  0      9      
iter:   5  16:42:29         -1.77      -5.634696  0      7      
iter:   6  16:42:29         -2.68      -5.634705  0      4      
iter:   7  16:42:29         -2.81      -5.634675  0      6      
iter:   8  16:42:29         -3.76      -5.634717  0      2      
iter:   9  16:42:29         -3.93      -5.634644  0      3      
iter:  10  16:42:30         -4.64      -5.634489  0      1      
------------------------------------
Converged After 10 Iterations.

Energy Contributions Relative to Reference Atoms:(reference = -2065.833357)
-------------------------
Kinetic:        -29.371621
Potential:      +34.646617
External:        +0.012588
XC:             -10.645315
Entropy (-ST):   -0.000000
Local:           -0.276758
-------------------------
Free Energy:     -5.634489
Zero Kelvin:     -5.634489

Fermi Level: -2.58741
 Band   Eigenvalues  Occupancy
   0    -26.07119     2.00000
   1    -12.71990     2.00000
   2     -8.73710     2.00000
   3     -6.20542     2.00000
   4      1.03059     0.00000
   5      3.30709     0.00000


Dipole Moment: [  1.92300605e-01   2.95377738e-01   1.21473956e-13]

Forces in eV/Ang:
  0 O    -0.87820   -1.82465   -0.00000
  1 H    -0.18176    1.47611   -0.00000
  2 H     1.03864    0.40907   -0.00000
Memory usage: 207.23 MB
==========================================================
Timing:                             incl.     excl.
==========================================================
Force calculation:                  0.037     0.014   0.2% |
 LCAO forces:                       0.023     0.000   0.0% |
  Atomic Hamiltonian force:         0.000     0.000   0.0% |
  Initial:                          0.000     0.000   0.0% |
   Get density matrix:              0.000     0.000   0.0% |
  Paw correction:                   0.000     0.000   0.0% |
  Potential:                        0.000     0.000   0.0% |
  TCI derivative:                   0.022     0.022   0.3% |
  Wait for sum:                     0.000     0.000   0.0% |
Initialization:                     0.935     0.140   1.9% ||
 Basic WFS set positions:           0.000     0.000   0.0% |
 Basis functions set positions:     0.003     0.003   0.0% |
 Hamiltonian:                       0.507     0.128   1.8% ||
  Atomic:                           0.000     0.000   0.0% |
  Communicate energies:             0.083     0.083   1.1% |
  Hartree integrate/restrict:       0.002     0.002   0.0% |
  Initialize Hamiltonian:           0.003     0.003   0.0% |
  Poisson:                          0.216     0.216   3.0% ||
  XC 3D grid:                       0.074     0.074   1.0% |
  vbar:                             0.001     0.001   0.0% |
 TCI: Calculate S, T, P:            0.001     0.001   0.0% |
 TCI: Evaluate splines:             0.282     0.282   3.9% |-|
SCF-cycle:                          2.127     0.002   0.0% |
 Density:                           0.055     0.000   0.0% |
  Atomic density matrices:          0.000     0.000   0.0% |
  Mix:                              0.025     0.025   0.3% |
  Multipole moments:                0.028     0.028   0.4% |
  Normalize:                        0.001     0.001   0.0% |
  Pseudo density:                   0.001     0.001   0.0% |
   Calculate density matrix:        0.000     0.000   0.0% |
   Construct density:               0.000     0.000   0.0% |
   Symmetrize density:              0.000     0.000   0.0% |
 Hamiltonian:                       2.045     0.005   0.1% |
  Atomic:                           0.000     0.000   0.0% |
  Communicate energies:             0.747     0.747  10.3% |---|
  Hartree integrate/restrict:       0.021     0.021   0.3% |
  Poisson:                          0.717     0.717   9.9% |---|
  XC 3D grid:                       0.552     0.552   7.6% |--|
  vbar:                             0.003     0.003   0.0% |
 LCAO eigensolver:                  0.024     0.001   0.0% |
  Atomic Hamiltonian:               0.000     0.000   0.0% |
  Calculate projections:            0.000     0.000   0.0% |
  Distribute overlap matrix:        0.020     0.020   0.3% |
  Orbital Layouts:                  0.004     0.004   0.1% |
  Potential matrix:                 0.000     0.000   0.0% |
Other:                              4.130     4.130  57.1% |----------------------|
==========================================================
Total:                                        7.229 100.0%
==========================================================
date: Thu Nov  5 16:42:34 2015
