
  ___ ___ ___ _ _ _  
 |   |   |_  | | | | 
 | | | | | . | | | | 
 |__ |  _|___|_____|  0.10.0.11364M
 |___|_|             

User:  asod@n-62-14-10
Date:  Wed Nov  4 16:27:11 2015
Arch:  x86_64
Pid:   21726
Dir:   /zhome/c7/a/69784/SCME2015_Nov/gpaw_scme/build/lib.linux-x86_64-2.7/gpaw
ase:   /zhome/c7/a/69784/JJ_qmmm/ase_JJqmmm/ase (version 3.10.0)
numpy: /appl/python/2.7.3/lib/python2.7/site-packages/numpy (version 1.6.2)
scipy: /appl/python/2.7.3/lib/python2.7/site-packages/scipy (version 0.11.0)
units: Angstrom and eV
cores: 1

Memory estimate
---------------
Process memory now: 452.05 MiB
Calculator  98.66 MiB
    Density  45.61 MiB
        Arrays  36.28 MiB
        Localized functions  1.16 MiB
        Mixer  8.17 MiB
    Hamiltonian  50.91 MiB
        Arrays  23.73 MiB
        XC  0.00 MiB
        Poisson  27.09 MiB
        vbar  0.08 MiB
    Wavefunctions  2.14 MiB
        C [qnM]  0.00 MiB
        S, T [2 x qmm]  0.01 MiB
        P [aqMi]  0.00 MiB
        TCI  0.00 MiB
        BasisFunctions  2.13 MiB
        Eigensolver  0.00 MiB

Positions:
  0 O     5.3140    5.5094    5.7586
  1 H     5.0000    6.4135    5.7586
  2 H     6.2745    5.5902    5.7586

        .-----------------------------.  
       /|                             |  
      / |                             |  
     /  |                             |  
    /   |                             |  
   /    |                             |  
  /     |                             |  
 *      |                             |  
 |      |                             |  
 |      |                             |  
 |      |        H                    |  
 |      |        O  H                 |  
 |      |                             |  
 |      |                             |  
 |      .-----------------------------.  
 |     /                             /   
 |    /                             /    
 |   /                             /     
 |  /                             /      
 | /                             /       
 |/                             /        
 *-----------------------------*         

Unit Cell:
           Periodic     X           Y           Z      Points  Spacing
  --------------------------------------------------------------------
  1. axis:    no    12.315516    0.000000    0.000000    60     0.2053
  2. axis:    no     0.000000   11.413485    0.000000    56     0.2038
  3. axis:    no     0.000000    0.000000   11.517122    56     0.2057

O-setup:
  name   : Oxygen
  id     : 32ecd46bf208036f09c70b0ec9a88b78
  Z      : 8
  valence: 6
  core   : 2
  charge : 0.0
  file   : /zhome/c7/a/69784/gpaw-setups/O.PBE.gz
  cutoffs: 0.67(comp), 1.17(filt), 0.83(core), lmax=2
  valence states:
            energy   radius
    2s(2)  -23.961   0.688
    2p(4)   -9.029   0.598
    *s       3.251   0.688
    *p      18.182   0.598
    *d       0.000   0.619

LCAO basis set for O:
  Name: dzp
  Basis set was loaded from file /zhome/c7/a/69784/gpaw-setups/O.dzp.basis
  Number of radial functions: 5
  Number of spherical harmonics: 13
    l=0, rc=4.3438 Bohr: 2s-sz confined orbital
    l=1, rc=5.3906 Bohr: 2p-sz confined orbital
    l=0, rc=2.2969 Bohr: 2s-dz split-valence wave
    l=1, rc=2.9688 Bohr: 2p-dz split-valence wave
    l=2, rc=5.3906 Bohr: d-type Gaussian polarization

H-setup:
  name   : Hydrogen
  id     : d65de229564ff8ea4db303e23b6d1ecf
  Z      : 1
  valence: 1
  core   : 0
  charge : 0.0
  file   : /zhome/c7/a/69784/gpaw-setups/H.PBE.gz
  cutoffs: 0.48(comp), 0.85(filt), 0.53(core), lmax=2
  valence states:
            energy   radius
    1s(1)   -6.494   0.476
    *s      20.717   0.476
    *p       0.000   0.476

LCAO basis set for H:
  Name: dzp
  Basis set was loaded from file /zhome/c7/a/69784/gpaw-setups/H.dzp.basis
  Number of radial functions: 3
  Number of spherical harmonics: 5
    l=0, rc=6.6406 Bohr: 1s-sz confined orbital
    l=0, rc=3.6094 Bohr: 1s-dz split-valence wave
    l=1, rc=6.6406 Bohr: p-type Gaussian polarization

Using the PBE Exchange-Correlation Functional.
Spin-Paired Calculation
Total Charge:      0.000000
Fermi Temperature: 0.000000
Wave functions: LCAO
Eigensolver:       lcao (direct)
XC and Coulomb potentials evaluated on a 120*112*112 grid
Interpolation: tri-quintic (5. degree polynomial)
Poisson solver: Jacobi solver with 4 multi-grid levels
Stencil: 6*3+1=19 point O(h^6) finite-difference Laplacian
Reference Energy:  -2065.833357

Total number of cores used: 1
Diagonalizer layout: Serial LAPACK

Symmetries present: 1
1 k-point (Gamma)
1 k-point in the Irreducible Part of the Brillouin Zone
Mixer Type:                        Mixer
Linear Mixing Parameter:           0.25
Mixing with 3 Old Densities
No Damping of Long Wave Oscillations

Convergence Criteria:
Total Energy Change:           0.0005 eV / electron
Integral of Absolute Density Change:    0.0001 electrons
Integral of Absolute Eigenstate Change: 4e-08 eV^2
Number of Atoms: 3
Number of Atomic Orbitals: 23
Number of Bands in Calculation:         6
Bands to Converge:                      Occupied States Only
Number of Valence Electrons:            8
                     log10-error:    Total        Iterations:
           Time      WFS    Density  Energy       Fermi  Poisson
iter:   1  16:27:37                    -9.054552  0      23     
iter:   2  16:27:48         -0.58      -7.036306  0      13     
iter:   3  16:28:00         -0.83      -6.443823  0      14     
iter:   4  16:28:10         -1.30      -6.382661  0      11     
iter:   5  16:28:18         -1.78      -6.374917  0      8      
iter:   6  16:28:24         -2.68      -6.375017  0      4      
iter:   7  16:28:31         -2.80      -6.375001  0      6      
iter:   8  16:28:36         -3.74      -6.375064  0      2      
iter:   9  16:28:41         -3.91      -6.374991  0      3      
iter:  10  16:28:46         -4.38      -6.374927  0      2      
------------------------------------
Converged After 10 Iterations.

Energy Contributions Relative to Reference Atoms:(reference = -2065.833357)
-------------------------
Kinetic:        -29.257929
Potential:      +34.523918
External:        -0.752348
XC:             -10.632930
Entropy (-ST):   -0.000000
Local:           -0.255637
-------------------------
Free Energy:     -6.374927
Zero Kelvin:     -6.374927

Fermi Level: -2.67594
 Band   Eigenvalues  Occupancy
   0    -26.19751     2.00000
   1    -12.85906     2.00000
   2     -8.84973     2.00000
   3     -6.29642     2.00000
   4      0.94454     0.00000
   5      3.23573     0.00000


Dipole Moment: [  1.78044294e-01   2.96260565e-01  -1.51839992e-12]

Forces in eV/Ang:
  0 O    -0.24618   -1.88783   -0.00000
  1 H    -0.14556    1.48545   -0.00000
  2 H     1.44227    0.34692   -0.00000
Memory usage: 994.41 MB
==========================================================
Timing:                             incl.     excl.
==========================================================
Force calculation:                  0.186     0.026   0.0% |
 LCAO forces:                       0.160     0.001   0.0% |
  Atomic Hamiltonian force:         0.001     0.001   0.0% |
  Initial:                          0.000     0.000   0.0% |
   Get density matrix:              0.000     0.000   0.0% |
  Paw correction:                   0.001     0.001   0.0% |
  Potential:                        0.117     0.117   0.0% |
  TCI derivative:                   0.041     0.041   0.0% |
  Wait for sum:                     0.000     0.000   0.0% |
Initialization:                    25.622     0.287   0.1% |
 Basic WFS set positions:           0.000     0.000   0.0% |
 Basis functions set positions:     0.018     0.018   0.0% |
 Hamiltonian:                      24.707     7.271   2.0% ||
  Atomic:                           0.215     0.001   0.0% |
   XC Correction:                   0.215     0.215   0.1% |
  Communicate energies:             0.000     0.000   0.0% |
  Hartree integrate/restrict:       0.050     0.050   0.0% |
  Initialize Hamiltonian:           0.013     0.013   0.0% |
  Poisson:                         14.179    14.179   3.9% |-|
  XC 3D grid:                       2.954     2.954   0.8% |
  vbar:                             0.025     0.025   0.0% |
 TCI: Calculate S, T, P:            0.018     0.018   0.0% |
 TCI: Evaluate splines:             0.591     0.591   0.2% |
SCF-cycle:                         68.923     0.005   0.0% |
 Density:                           0.849     0.000   0.0% |
  Atomic density matrices:          0.003     0.003   0.0% |
  Mix:                              0.674     0.674   0.2% |
  Multipole moments:                0.001     0.001   0.0% |
  Normalize:                        0.007     0.007   0.0% |
  Pseudo density:                   0.164     0.013   0.0% |
   Calculate density matrix:        0.001     0.001   0.0% |
   Construct density:               0.150     0.150   0.0% |
   Symmetrize density:              0.000     0.000   0.0% |
 Hamiltonian:                      67.909     0.163   0.0% |
  Atomic:                           1.955     0.006   0.0% |
   XC Correction:                   1.949     1.949   0.5% |
  Communicate energies:             0.000     0.000   0.0% |
  Hartree integrate/restrict:       0.427     0.427   0.1% |
  Poisson:                         38.756    38.756  10.6% |---|
  XC 3D grid:                      26.500    26.500   7.2% |--|
  vbar:                             0.106     0.106   0.0% |
 LCAO eigensolver:                  0.162     0.001   0.0% |
  Atomic Hamiltonian:               0.002     0.002   0.0% |
  Calculate projections:            0.000     0.000   0.0% |
  Distribute overlap matrix:        0.000     0.000   0.0% |
  Orbital Layouts:                  0.007     0.007   0.0% |
  Potential matrix:                 0.152     0.152   0.0% |
Other:                            271.850   271.850  74.2% |-----------------------------|
==========================================================
Total:                                      366.582 100.0%
==========================================================
date: Wed Nov  4 16:33:17 2015
