
  ___ ___ ___ _ _ _  
 |   |   |_  | | | | 
 | | | | | . | | | | 
 |__ |  _|___|_____|  0.10.0.11364M
 |___|_|             

User:  asod@n-62-14-10
Date:  Thu Nov  5 14:59:50 2015
Arch:  x86_64
Pid:   3819
Dir:   /zhome/c7/a/69784/SCME2015_Nov/gpaw_scme/build/lib.linux-x86_64-2.7/gpaw
ase:   /zhome/c7/a/69784/JJ_qmmm/ase_JJqmmm/ase (version 3.10.0)
numpy: /appl/python/2.7.3/lib/python2.7/site-packages/numpy (version 1.6.2)
scipy: /appl/python/2.7.3/lib/python2.7/site-packages/scipy (version 0.11.0)
units: Angstrom and eV
cores: 1

Memory estimate
---------------
Process memory now: 1004.97 MiB
Calculator  111.62 MiB
    Density  51.65 MiB
        Arrays  41.16 MiB
        Localized functions  1.21 MiB
        Mixer  9.28 MiB
    Hamiltonian  57.75 MiB
        Arrays  26.93 MiB
        XC  0.00 MiB
        Poisson  30.73 MiB
        vbar  0.09 MiB
    Wavefunctions  2.22 MiB
        C [qnM]  0.00 MiB
        S, T [2 x qmm]  0.01 MiB
        P [aqMi]  0.00 MiB
        TCI  0.00 MiB
        BasisFunctions  2.21 MiB
        Eigensolver  0.00 MiB

Positions:
  0 O     5.3140    5.5094    5.7586
  1 H     5.0000    6.4135    5.7586
  2 H     6.2745    5.5902    5.7586

        .--------------------------------.  
       /|                                |  
      / |                                |  
     /  |                                |  
    /   |                                |  
   /    |                                |  
  /     |                                |  
 *      |                                |  
 |      |                                |  
 |      |                                |  
 |      |        H                       |  
 |      |        O  H                    |  
 |      |                                |  
 |      |                                |  
 |      .--------------------------------.  
 |     /                                /   
 |    /                                /    
 |   /                                /     
 |  /                                /      
 | /                                /       
 |/                                /        
 *--------------------------------*         

Unit Cell:
           Periodic     X           Y           Z      Points  Spacing
  --------------------------------------------------------------------
  1. axis:    no    13.415516    0.000000    0.000000    68     0.1973
  2. axis:    no     0.000000   11.413485    0.000000    56     0.2038
  3. axis:    no     0.000000    0.000000   11.517122    56     0.2057

O-setup:
  name   : Oxygen
  id     : 32ecd46bf208036f09c70b0ec9a88b78
  Z      : 8
  valence: 6
  core   : 2
  charge : 0.0
  file   : /zhome/c7/a/69784/gpaw-setups/O.PBE.gz
  cutoffs: 0.67(comp), 1.17(filt), 0.83(core), lmax=2
  valence states:
            energy   radius
    2s(2)  -23.961   0.688
    2p(4)   -9.029   0.598
    *s       3.251   0.688
    *p      18.182   0.598
    *d       0.000   0.619

LCAO basis set for O:
  Name: dzp
  Basis set was loaded from file /zhome/c7/a/69784/gpaw-setups/O.dzp.basis
  Number of radial functions: 5
  Number of spherical harmonics: 13
    l=0, rc=4.3438 Bohr: 2s-sz confined orbital
    l=1, rc=5.3906 Bohr: 2p-sz confined orbital
    l=0, rc=2.2969 Bohr: 2s-dz split-valence wave
    l=1, rc=2.9688 Bohr: 2p-dz split-valence wave
    l=2, rc=5.3906 Bohr: d-type Gaussian polarization

H-setup:
  name   : Hydrogen
  id     : d65de229564ff8ea4db303e23b6d1ecf
  Z      : 1
  valence: 1
  core   : 0
  charge : 0.0
  file   : /zhome/c7/a/69784/gpaw-setups/H.PBE.gz
  cutoffs: 0.48(comp), 0.85(filt), 0.53(core), lmax=2
  valence states:
            energy   radius
    1s(1)   -6.494   0.476
    *s      20.717   0.476
    *p       0.000   0.476

LCAO basis set for H:
  Name: dzp
  Basis set was loaded from file /zhome/c7/a/69784/gpaw-setups/H.dzp.basis
  Number of radial functions: 3
  Number of spherical harmonics: 5
    l=0, rc=6.6406 Bohr: 1s-sz confined orbital
    l=0, rc=3.6094 Bohr: 1s-dz split-valence wave
    l=1, rc=6.6406 Bohr: p-type Gaussian polarization

Using the PBE Exchange-Correlation Functional.
Spin-Paired Calculation
Total Charge:      0.000000
Fermi Temperature: 0.000000
Wave functions: LCAO
Eigensolver:       lcao (direct)
XC and Coulomb potentials evaluated on a 136*112*112 grid
Interpolation: tri-quintic (5. degree polynomial)
Poisson solver: Jacobi solver with 4 multi-grid levels
Stencil: 6*3+1=19 point O(h^6) finite-difference Laplacian
Reference Energy:  -2065.833357

Total number of cores used: 1
Diagonalizer layout: Serial LAPACK

Symmetries present: 1
1 k-point (Gamma)
1 k-point in the Irreducible Part of the Brillouin Zone
Mixer Type:                        Mixer
Linear Mixing Parameter:           0.25
Mixing with 3 Old Densities
No Damping of Long Wave Oscillations

Convergence Criteria:
Total Energy Change:           0.0005 eV / electron
Integral of Absolute Density Change:    0.0001 electrons
Integral of Absolute Eigenstate Change: 4e-08 eV^2
Number of Atoms: 3
Number of Atomic Orbitals: 23
Number of Bands in Calculation:         6
Bands to Converge:                      Occupied States Only
Number of Valence Electrons:            8
                     log10-error:    Total        Iterations:
           Time      WFS    Density  Energy       Fermi  Poisson
iter:   1  15:00:20                    -8.452655  0      25     
iter:   2  15:00:32         -0.57      -6.401828  0      13     
iter:   3  15:00:46         -0.82      -5.798372  0      14     
iter:   4  15:00:57         -1.30      -5.736808  0      11     
iter:   5  15:01:07         -1.77      -5.728679  0      8      
iter:   6  15:01:14         -2.68      -5.728759  0      4      
iter:   7  15:01:23         -2.81      -5.728744  0      6      
iter:   8  15:01:28         -3.77      -5.728797  0      2      
iter:   9  15:01:34         -3.94      -5.728741  0      3      
iter:  10  15:01:39         -4.42      -5.728625  0      1      
------------------------------------
Converged After 10 Iterations.

Energy Contributions Relative to Reference Atoms:(reference = -2065.833357)
-------------------------
Kinetic:        -29.373445
Potential:      +34.643675
External:        -0.084810
XC:             -10.641860
Entropy (-ST):   -0.000000
Local:           -0.272184
-------------------------
Free Energy:     -5.728625
Zero Kelvin:     -5.728625

Fermi Level: -2.60326
 Band   Eigenvalues  Occupancy
   0    -26.08682     2.00000
   1    -12.73479     2.00000
   2     -8.75072     2.00000
   3     -6.21773     2.00000
   4      1.01122     0.00000
   5      3.28283     0.00000


Dipole Moment: [  1.91061477e-01   2.95334738e-01  -2.07627898e-12]

Forces in eV/Ang:
  0 O    -0.78675   -1.87748   -0.00000
  1 H    -0.17978    1.48106   -0.00000
  2 H     1.05984    0.40938   -0.00000
Memory usage: 1.09 GB
==========================================================
Timing:                             incl.     excl.
==========================================================
Force calculation:                  0.191     0.027   0.0% |
 LCAO forces:                       0.164     0.001   0.0% |
  Atomic Hamiltonian force:         0.001     0.001   0.0% |
  Initial:                          0.000     0.000   0.0% |
   Get density matrix:              0.000     0.000   0.0% |
  Paw correction:                   0.001     0.001   0.0% |
  Potential:                        0.121     0.121   0.0% |
  TCI derivative:                   0.041     0.041   0.0% |
  Wait for sum:                     0.000     0.000   0.0% |
Initialization:                    29.344     0.268   0.1% |
 Basic WFS set positions:           0.000     0.000   0.0% |
 Basis functions set positions:     0.018     0.018   0.0% |
 Hamiltonian:                      28.452     7.684   2.4% ||
  Atomic:                           0.215     0.001   0.0% |
   XC Correction:                   0.215     0.215   0.1% |
  Communicate energies:             0.000     0.000   0.0% |
  Hartree integrate/restrict:       0.049     0.049   0.0% |
  Initialize Hamiltonian:           0.005     0.005   0.0% |
  Poisson:                         17.193    17.193   5.4% |-|
  XC 3D grid:                       3.291     3.291   1.0% |
  vbar:                             0.014     0.014   0.0% |
 TCI: Calculate S, T, P:            0.018     0.018   0.0% |
 TCI: Evaluate splines:             0.587     0.587   0.2% |
SCF-cycle:                         79.077     0.004   0.0% |
 Density:                           0.930     0.000   0.0% |
  Atomic density matrices:          0.003     0.003   0.0% |
  Mix:                              0.747     0.747   0.2% |
  Multipole moments:                0.001     0.001   0.0% |
  Normalize:                        0.008     0.008   0.0% |
  Pseudo density:                   0.171     0.014   0.0% |
   Calculate density matrix:        0.001     0.001   0.0% |
   Construct density:               0.156     0.156   0.0% |
   Symmetrize density:              0.000     0.000   0.0% |
 Hamiltonian:                      77.976     0.191   0.1% |
  Atomic:                           1.960     0.006   0.0% |
   XC Correction:                   1.954     1.954   0.6% |
  Communicate energies:             0.000     0.000   0.0% |
  Hartree integrate/restrict:       0.522     0.522   0.2% |
  Poisson:                         45.199    45.199  14.2% |-----|
  XC 3D grid:                      29.980    29.980   9.4% |---|
  vbar:                             0.123     0.123   0.0% |
 LCAO eigensolver:                  0.167     0.001   0.0% |
  Atomic Hamiltonian:               0.001     0.001   0.0% |
  Calculate projections:            0.000     0.000   0.0% |
  Distribute overlap matrix:        0.000     0.000   0.0% |
  Orbital Layouts:                  0.007     0.007   0.0% |
  Potential matrix:                 0.157     0.157   0.0% |
Other:                            209.557   209.557  65.9% |-------------------------|
==========================================================
Total:                                      318.169 100.0%
==========================================================
date: Thu Nov  5 15:05:09 2015
