
  ___ ___ ___ _ _ _  
 |   |   |_  | | | | 
 | | | | | . | | | | 
 |__ |  _|___|_____|  0.10.0.11364M
 |___|_|             

User:  asod@n-62-14-10
Date:  Thu Nov  5 16:15:25 2015
Arch:  x86_64
Pid:   21942
Dir:   /zhome/c7/a/69784/SCME2015_Nov/gpaw_scme/build/lib.linux-x86_64-2.7/gpaw
ase:   /zhome/c7/a/69784/JJ_qmmm/ase_JJqmmm/ase (version 3.10.0)
numpy: /appl/python/2.7.3/lib/python2.7/site-packages/numpy (version 1.6.2)
scipy: /appl/python/2.7.3/lib/python2.7/site-packages/scipy (version 0.11.0)
units: Angstrom and eV
cores: 1

Memory estimate
---------------
Process memory now: 448.04 MiB
Calculator  105.34 MiB
    Density  48.68 MiB
        Arrays  38.72 MiB
        Localized functions  1.23 MiB
        Mixer  8.72 MiB
    Hamiltonian  54.40 MiB
        Arrays  25.33 MiB
        XC  0.00 MiB
        Poisson  28.98 MiB
        vbar  0.09 MiB
    Wavefunctions  2.26 MiB
        C [qnM]  0.00 MiB
        S, T [2 x qmm]  0.01 MiB
        P [aqMi]  0.00 MiB
        TCI  0.00 MiB
        BasisFunctions  2.25 MiB
        Eigensolver  0.00 MiB

Positions:
  0 O     5.3140    5.5094    5.7586
  1 H     5.0000    6.4135    5.7586
  2 H     6.2745    5.5902    5.7586

        .------------------------------.  
       /|                              |  
      / |                              |  
     /  |                              |  
    /   |                              |  
   /    |                              |  
  /     |                              |  
 *      |                              |  
 |      |                              |  
 |      |                              |  
 |      |        H                     |  
 |      |         O H                  |  
 |      |                              |  
 |      |                              |  
 |      .------------------------------.  
 |     /                              /   
 |    /                              /    
 |   /                              /     
 |  /                              /      
 | /                              /       
 |/                              /        
 *------------------------------*         

Unit Cell:
           Periodic     X           Y           Z      Points  Spacing
  --------------------------------------------------------------------
  1. axis:    no    12.415516    0.000000    0.000000    64     0.1940
  2. axis:    no     0.000000   11.413485    0.000000    56     0.2038
  3. axis:    no     0.000000    0.000000   11.517122    56     0.2057

O-setup:
  name   : Oxygen
  id     : 32ecd46bf208036f09c70b0ec9a88b78
  Z      : 8
  valence: 6
  core   : 2
  charge : 0.0
  file   : /zhome/c7/a/69784/gpaw-setups/O.PBE.gz
  cutoffs: 0.67(comp), 1.17(filt), 0.83(core), lmax=2
  valence states:
            energy   radius
    2s(2)  -23.961   0.688
    2p(4)   -9.029   0.598
    *s       3.251   0.688
    *p      18.182   0.598
    *d       0.000   0.619

LCAO basis set for O:
  Name: dzp
  Basis set was loaded from file /zhome/c7/a/69784/gpaw-setups/O.dzp.basis
  Number of radial functions: 5
  Number of spherical harmonics: 13
    l=0, rc=4.3438 Bohr: 2s-sz confined orbital
    l=1, rc=5.3906 Bohr: 2p-sz confined orbital
    l=0, rc=2.2969 Bohr: 2s-dz split-valence wave
    l=1, rc=2.9688 Bohr: 2p-dz split-valence wave
    l=2, rc=5.3906 Bohr: d-type Gaussian polarization

H-setup:
  name   : Hydrogen
  id     : d65de229564ff8ea4db303e23b6d1ecf
  Z      : 1
  valence: 1
  core   : 0
  charge : 0.0
  file   : /zhome/c7/a/69784/gpaw-setups/H.PBE.gz
  cutoffs: 0.48(comp), 0.85(filt), 0.53(core), lmax=2
  valence states:
            energy   radius
    1s(1)   -6.494   0.476
    *s      20.717   0.476
    *p       0.000   0.476

LCAO basis set for H:
  Name: dzp
  Basis set was loaded from file /zhome/c7/a/69784/gpaw-setups/H.dzp.basis
  Number of radial functions: 3
  Number of spherical harmonics: 5
    l=0, rc=6.6406 Bohr: 1s-sz confined orbital
    l=0, rc=3.6094 Bohr: 1s-dz split-valence wave
    l=1, rc=6.6406 Bohr: p-type Gaussian polarization

Using the PBE Exchange-Correlation Functional.
Spin-Paired Calculation
Total Charge:      0.000000
Fermi Temperature: 0.000000
Wave functions: LCAO
Eigensolver:       lcao (direct)
XC and Coulomb potentials evaluated on a 128*112*112 grid
Interpolation: tri-quintic (5. degree polynomial)
Poisson solver: Jacobi solver with 5 multi-grid levels
Stencil: 6*3+1=19 point O(h^6) finite-difference Laplacian
Reference Energy:  -2065.833357

Total number of cores used: 1
Diagonalizer layout: Serial LAPACK

Symmetries present: 1
1 k-point (Gamma)
1 k-point in the Irreducible Part of the Brillouin Zone
Mixer Type:                        Mixer
Linear Mixing Parameter:           0.25
Mixing with 3 Old Densities
No Damping of Long Wave Oscillations

Convergence Criteria:
Total Energy Change:           0.0005 eV / electron
Integral of Absolute Density Change:    0.0001 electrons
Integral of Absolute Eigenstate Change: 4e-08 eV^2
Number of Atoms: 3
Number of Atomic Orbitals: 23
Number of Bands in Calculation:         6
Bands to Converge:                      Occupied States Only
Number of Valence Electrons:            8
                     log10-error:    Total        Iterations:
           Time      WFS    Density  Energy       Fermi  Poisson
iter:   1  16:15:49                    -7.597981  0      16     
iter:   2  16:15:59         -0.57      -5.515469  0      9      
iter:   3  16:16:10         -0.82      -4.901406  0      9      
iter:   4  16:16:21         -1.30      -4.839515  0      9      
iter:   5  16:16:29         -1.76      -4.831050  0      7      
iter:   6  16:16:36         -2.67      -4.831049  0      4      
iter:   7  16:16:44         -2.81      -4.831016  0      6      
iter:   8  16:16:49         -3.70      -4.831105  0      2      
iter:   9  16:16:55         -3.88      -4.831001  0      3      
