
  ___ ___ ___ _ _ _  
 |   |   |_  | | | | 
 | | | | | . | | | | 
 |__ |  _|___|_____|  0.10.0.11364M
 |___|_|             

User:  asod@n-62-14-6
Date:  Fri Oct 30 16:12:00 2015
Arch:  x86_64
Pid:   23144
Dir:   /zhome/c7/a/69784/SCME2015_Nov/gpaw_scme/build/lib.linux-x86_64-2.7/gpaw
ase:   /zhome/c7/a/69784/JJ_qmmm/ase_JJqmmm/ase (version 3.10.0)
numpy: /appl/python/2.7.3/lib/python2.7/site-packages/numpy (version 1.6.2)
scipy: /appl/python/2.7.3/lib/python2.7/site-packages/scipy (version 0.11.0)
units: Angstrom and eV
cores: 1

Memory estimate
---------------
Process memory now: 368.96 MiB
Calculator  152.59 MiB
    Density  70.92 MiB
        Arrays  56.49 MiB
        Localized functions  1.67 MiB
        Mixer  12.76 MiB
    Hamiltonian  79.24 MiB
        Arrays  36.95 MiB
        XC  0.00 MiB
        Poisson  42.17 MiB
        vbar  0.12 MiB
    Wavefunctions  2.43 MiB
        C [qnM]  0.00 MiB
        S, T [2 x qmm]  0.00 MiB
        P [aqMi]  0.00 MiB
        TCI  0.00 MiB
        BasisFunctions  2.43 MiB
        Eigensolver  0.00 MiB

Positions:
  0 O     5.3833    5.2592    5.7586
  1 H     5.0693    6.1634    5.7586
  2 H     6.3438    5.3401    5.7586

        .--------------------------------.  
       /|                                |  
      / |                                |  
     /  |                                |  
    /   |                                |  
   /    |                                |  
  /     |                                |  
 *      |                                |  
 |      |                                |  
 |      |                                |  
 |      |        H                       |  
 |      |        O  H                    |  
 |      |                                |  
 |      |                                |  
 |      .--------------------------------.  
 |     /                                /   
 |    /                                /    
 |   /                                /     
 |  /                                /      
 | /                                /       
 |/                                /        
 *--------------------------------*         

Unit Cell:
           Periodic     X           Y           Z      Points  Spacing
  --------------------------------------------------------------------
  1. axis:    no    13.614657    0.000000    0.000000    76     0.1791
  2. axis:    no     0.000000   11.136244    0.000000    60     0.1856
  3. axis:    no     0.000000    0.000000   11.517122    64     0.1800

O-setup:
  name   : Oxygen
  id     : 32ecd46bf208036f09c70b0ec9a88b78
  Z      : 8
  valence: 6
  core   : 2
  charge : 0.0
  file   : /zhome/c7/a/69784/gpaw-setups/O.PBE.gz
  cutoffs: 0.67(comp), 1.17(filt), 0.83(core), lmax=2
  valence states:
            energy   radius
    2s(2)  -23.961   0.688
    2p(4)   -9.029   0.598
    *s       3.251   0.688
    *p      18.182   0.598
    *d       0.000   0.619

Using partial waves for O as LCAO basis

H-setup:
  name   : Hydrogen
  id     : d65de229564ff8ea4db303e23b6d1ecf
  Z      : 1
  valence: 1
  core   : 0
  charge : 0.0
  file   : /zhome/c7/a/69784/gpaw-setups/H.PBE.gz
  cutoffs: 0.48(comp), 0.85(filt), 0.53(core), lmax=2
  valence states:
            energy   radius
    1s(1)   -6.494   0.476
    *s      20.717   0.476
    *p       0.000   0.476

Using partial waves for H as LCAO basis

Using the PBE Exchange-Correlation Functional.
Spin-Paired Calculation
Total Charge:      0.000000
Fermi Temperature: 0.000000
Wave functions: LCAO
Eigensolver:       lcao (direct)
XC and Coulomb potentials evaluated on a 152*120*128 grid
Interpolation: tri-quintic (5. degree polynomial)
Poisson solver: Jacobi solver with 4 multi-grid levels
Stencil: 6*3+1=19 point O(h^6) finite-difference Laplacian
Reference Energy:  -2065.833357

Total number of cores used: 1
Diagonalizer layout: Serial LAPACK

Symmetries present: 1
1 k-point (Gamma)
1 k-point in the Irreducible Part of the Brillouin Zone
Mixer Type:                        Mixer
Linear Mixing Parameter:           0.25
Mixing with 3 Old Densities
No Damping of Long Wave Oscillations

Convergence Criteria:
Total Energy Change:           0.0005 eV / electron
Integral of Absolute Density Change:    0.0001 electrons
Integral of Absolute Eigenstate Change: 4e-08 eV^2
Number of Atoms: 3
Number of Atomic Orbitals: 6
Number of Bands in Calculation:         6
Bands to Converge:                      Occupied States Only
Number of Valence Electrons:            8
                     log10-error:    Total        Iterations:
           Time      WFS    Density  Energy       Fermi  Poisson
iter:   1  16:12:46                   -12.621345  0      30     
iter:   2  16:13:06         -0.77     -11.011756  0      15     
iter:   3  16:13:26         -0.99     -10.289821  0      15     
iter:   4  16:13:42         -1.40     -10.193617  0      11     
iter:   5  16:13:54         -2.24     -10.191664  0      7      
iter:   6  16:14:03         -2.70     -10.191548  0      4      
iter:   7  16:14:13         -2.82     -10.191408  0      5      
iter:   8  16:14:20         -3.87     -10.191402  0      2      
iter:   9  16:14:28         -4.01     -10.191425  0      3      
------------------------------------
Converged After 9 Iterations.

Energy Contributions Relative to Reference Atoms:(reference = -2065.833357)
-------------------------
Kinetic:        +22.176136
Potential:      -20.225547
External:        -0.642029
XC:             -11.751048
Entropy (-ST):   -0.000000
Local:           +0.251063
-------------------------
Free Energy:    -10.191425
Zero Kelvin:    -10.191425

Fermi Level: -2.83667
 Band   Eigenvalues  Occupancy
   0    -26.47461     2.00000
   1    -14.01548     2.00000
   2     -8.67289     2.00000
   3     -7.19791     2.00000
   4      1.52458     0.00000
   5      5.11843     0.00000


Dipole Moment: [  2.40889307e-01   3.78386959e-01  -2.34603020e-13]
Memory usage: 652.35 MB
==========================================================
Timing:                             incl.     excl.
==========================================================
Initialization:                    46.492     0.359   0.2% |
 Basic WFS set positions:           0.000     0.000   0.0% |
 Basis functions set positions:     0.027     0.027   0.0% |
 Hamiltonian:                      45.980    11.732   7.9% |--|
  Atomic:                           0.214     0.001   0.0% |
   XC Correction:                   0.213     0.213   0.1% |
  Communicate energies:             0.000     0.000   0.0% |
  Hartree integrate/restrict:       0.077     0.077   0.1% |
  Initialize Hamiltonian:           0.019     0.019   0.0% |
  Poisson:                         29.261    29.261  19.6% |-------|
  XC 3D grid:                       4.647     4.647   3.1% ||
  vbar:                             0.030     0.030   0.0% |
 TCI: Calculate S, T, P:            0.006     0.006   0.0% |
 TCI: Evaluate splines:             0.119     0.119   0.1% |
SCF-cycle:                        102.356     0.004   0.0% |
 Density:                           1.131     0.000   0.0% |
  Atomic density matrices:          0.003     0.003   0.0% |
  Mix:                              1.015     1.015   0.7% |
  Multipole moments:                0.001     0.001   0.0% |
  Normalize:                        0.011     0.011   0.0% |
  Pseudo density:                   0.102     0.019   0.0% |
   Calculate density matrix:        0.001     0.001   0.0% |
   Construct density:               0.082     0.082   0.1% |
   Symmetrize density:              0.000     0.000   0.0% |
 Hamiltonian:                     101.131     0.218   0.1% |
  Atomic:                           1.721     0.005   0.0% |
   XC Correction:                   1.715     1.715   1.2% |
  Communicate energies:             0.000     0.000   0.0% |
  Hartree integrate/restrict:       0.622     0.622   0.4% |
  Poisson:                         60.828    60.828  40.8% |---------------|
  XC 3D grid:                      37.601    37.601  25.2% |---------|
  vbar:                             0.142     0.142   0.1% |
 LCAO eigensolver:                  0.089     0.001   0.0% |
  Atomic Hamiltonian:               0.001     0.001   0.0% |
  Calculate projections:            0.000     0.000   0.0% |
  Distribute overlap matrix:        0.000     0.000   0.0% |
  Orbital Layouts:                  0.002     0.002   0.0% |
  Potential matrix:                 0.084     0.084   0.1% |
Other:                              0.084     0.084   0.1% |
==========================================================
Total:                                      148.932 100.0%
==========================================================
date: Fri Oct 30 16:14:29 2015
